                         Program Version 4.0.1.2 - RELEASE -
|  1> ! B3LYP 6-31G(d,p) Opt
|  2> * xyzfile 0 1 retinol.xyz
|  3>
|  4>                          ****END OF INPUT****
 Total Charge           Charge          ....    0
 Multiplicity           Mult            ....    1
 Number of Electrons    NEL             ....  158
FINAL SINGLE POINT ENERGY      -854.799505667480
FINAL SINGLE POINT ENERGY      -854.803155487390
FINAL SINGLE POINT ENERGY      -854.804223575302
FINAL SINGLE POINT ENERGY      -854.804598954905
FINAL SINGLE POINT ENERGY      -854.804832506881
FINAL SINGLE POINT ENERGY      -854.804939388337
FINAL SINGLE POINT ENERGY      -854.804987144204
FINAL SINGLE POINT ENERGY      -854.805003085767
FINAL SINGLE POINT ENERGY      -854.805005035813
                    ***********************HURRAY********************

CARTESIAN COORDINATES (ANGSTROEM)
---------------------------------
  C     -5.425659    2.703658    0.433162
  C     -5.285892    1.269164    0.937680
  C     -4.398720    0.482376   -0.026042
  H     -6.268894    0.792174    1.028811
  H     -4.840983    1.264154    1.940399
  C     -3.140391    1.219450   -0.438888
  H     -4.968494    0.219436   -0.932626
  H     -4.110210   -0.482056    0.416501
  C     -2.960823    2.548001   -0.223401
  C     -4.072219    3.451001    0.367125
  H     -6.116461    3.278110    1.063211
  H     -5.868709    2.678764   -0.572449
  C     -4.288392    4.707198   -0.511278
  H     -4.461880    4.436312   -1.558939
  H     -3.441643    5.398839   -0.472708
  H     -5.168791    5.256516   -0.156449
  C     -3.655509    3.915312    1.783919
  H     -3.573592    3.070977    2.475912
  H     -4.390890    4.620433    2.190894
  H     -2.681810    4.415013    1.761979
  C     -2.149844    0.324581   -1.147330
  H     -2.683263   -0.322557   -1.856995
  H     -1.638573   -0.349921   -0.445770
  H     -1.385938    0.880405   -1.691942
  C     -1.691743    3.239110   -0.527179
  C     -0.452428    2.805574   -0.195702
  C      0.803329    3.492040   -0.469429
  C      1.963954    2.910922   -0.044188
  C      3.311587    3.400212   -0.190541
  C      4.395656    2.729180    0.276715
  C      5.789578    3.148291    0.173565
  C      6.739133    2.361821    0.731138
  C      8.219103    2.584328    0.793500
  O      8.855620    1.321541    0.598575
  H      8.482038    2.997794    1.785335
  H      8.552071    3.318571    0.044941
  C      0.752841    4.810684   -1.203478
  H      0.168852    5.548188   -0.638602
  H      0.263465    4.696407   -2.178367
  H      1.742524    5.233848   -1.377538
  C      6.089014    4.446331   -0.541827
  H      5.654716    5.298397   -0.004695
  H      5.653214    4.444657   -1.547250
  H      7.159718    4.631544   -0.642024
  H     -1.775796    4.209770   -1.009707
  H     -0.361163    1.864734    0.344768
  H      1.873225    1.955136    0.472977
  H      3.458378    4.351149   -0.694248
  H      4.228031    1.779886    0.785777
  H      6.423759    1.446480    1.230783
  H      9.797295    1.435585    0.778995

 Multiplicity           Mult            ....    1
 Number of Electrons    NEL             ....  158
 Basis Dimension        Dim             ....  444

ORBITAL ENERGIES
----------------

  NO   OCC          E(Eh)            E(eV)
   0   2.0000     -19.132636      -520.6255
   1   2.0000     -10.227152      -278.2950
   2   2.0000     -10.187811      -277.2244
   3   2.0000     -10.185436      -277.1598
   4   2.0000     -10.185155      -277.1522
   5   2.0000     -10.176301      -276.9112
   6   2.0000     -10.175628      -276.8929
   7   2.0000     -10.175568      -276.8913
   8   2.0000     -10.174451      -276.8609
   9   2.0000     -10.174128      -276.8521
  10   2.0000     -10.174075      -276.8507
  11   2.0000     -10.171834      -276.7897
  12   2.0000     -10.171450      -276.7792
  13   2.0000     -10.170308      -276.7481
  14   2.0000     -10.170003      -276.7398
  15   2.0000     -10.169658      -276.7305
  16   2.0000     -10.165959      -276.6298
  17   2.0000     -10.163598      -276.5656
  18   2.0000     -10.161904      -276.5195
  19   2.0000     -10.161585      -276.5108
  20   2.0000     -10.157395      -276.3968
  21   2.0000      -1.008796       -27.4507
  22   2.0000      -0.840013       -22.8579
  23   2.0000      -0.823969       -22.4213
  24   2.0000      -0.808904       -22.0114
  25   2.0000      -0.776188       -21.1211
  26   2.0000      -0.769754       -20.9461
  27   2.0000      -0.749107       -20.3842
  28   2.0000      -0.718212       -19.5435
  29   2.0000      -0.708275       -19.2731
  30   2.0000      -0.682624       -18.5751
  31   2.0000      -0.673403       -18.3242
  32   2.0000      -0.671032       -18.2597
  33   2.0000      -0.663124       -18.0445
  34   2.0000      -0.648667       -17.6511
  35   2.0000      -0.604656       -16.4535
  36   2.0000      -0.577172       -15.7057
  37   2.0000      -0.556219       -15.1355
  38   2.0000      -0.539133       -14.6706
  39   2.0000      -0.526824       -14.3356
  40   2.0000      -0.519070       -14.1246
  41   2.0000      -0.499014       -13.5789
  42   2.0000      -0.484378       -13.1806
  43   2.0000      -0.473291       -12.8789
  44   2.0000      -0.462043       -12.5728
  45   2.0000      -0.455897       -12.4056
  46   2.0000      -0.442730       -12.0473
  47   2.0000      -0.437080       -11.8936
  48   2.0000      -0.427159       -11.6236
  49   2.0000      -0.422536       -11.4978
  50   2.0000      -0.413638       -11.2557
  51   2.0000      -0.412422       -11.2226
  52   2.0000      -0.411686       -11.2026
  53   2.0000      -0.409906       -11.1541
  54   2.0000      -0.404258       -11.0004
  55   2.0000      -0.389403       -10.5962
  56   2.0000      -0.386978       -10.5302
  57   2.0000      -0.382909       -10.4195
  58   2.0000      -0.382117       -10.3979
  59   2.0000      -0.375353       -10.2139
  60   2.0000      -0.370528       -10.0826
  61   2.0000      -0.359672        -9.7872
  62   2.0000      -0.358484        -9.7548
  63   2.0000      -0.356261        -9.6944
  64   2.0000      -0.345165        -9.3924
  65   2.0000      -0.340303        -9.2601
  66   2.0000      -0.336702        -9.1621
  67   2.0000      -0.332276        -9.0417
  68   2.0000      -0.328591        -8.9414
  69   2.0000      -0.320691        -8.7264
  70   2.0000      -0.319044        -8.6816
  71   2.0000      -0.308881        -8.4051
  72   2.0000      -0.300676        -8.1818
  73   2.0000      -0.287983        -7.8364
  74   2.0000      -0.282161        -7.6780
  75   2.0000      -0.266463        -7.2508
  76   2.0000      -0.249340        -6.7849
  77   2.0000      -0.217817        -5.9271
  78   2.0000      -0.176296        -4.7973
  79   0.0000      -0.049190        -1.3385
  80   0.0000       0.011909         0.3241
  81   0.0000       0.049695         1.3523
  82   0.0000       0.081918         2.2291
  83   0.0000       0.088470         2.4074

MULLIKEN ATOMIC CHARGES
-----------------------
   0 C :   -0.169565
   1 C :   -0.184533
   2 C :   -0.213895
   3 H :    0.084151
   4 H :    0.094337
   5 C :    0.056191
   6 H :    0.099878
   7 H :    0.092594
   8 C :    0.073448
   9 C :    0.010373
  10 H :    0.081515
  11 H :    0.084168
  12 C :   -0.309586
  13 H :    0.098716
  14 H :    0.097917
  15 H :    0.094350
  16 C :   -0.301440
  17 H :    0.099979
  18 H :    0.091917
  19 H :    0.101775
  20 C :   -0.359448
  21 H :    0.097983
  22 H :    0.107418
  23 H :    0.118015
  24 C :   -0.149113
  25 C :   -0.085458
  26 C :    0.125581
  27 C :   -0.129645
  28 C :   -0.077475
  29 C :   -0.108443
  30 C :    0.151503
  31 C :   -0.132774
  32 C :    0.025689
  33 O :   -0.538070
  34 H :    0.088830
  35 H :    0.086254
  36 C :   -0.379104
  37 H :    0.119490
  38 H :    0.121432
  39 H :    0.105100
  40 C :   -0.378411
  41 H :    0.119807
  42 H :    0.120204
  43 H :    0.101355
  44 H :    0.076530
  45 H :    0.076415
  46 H :    0.069344
  47 H :    0.072512
  48 H :    0.073721
  49 H :    0.093112
  50 H :    0.305354
Sum of atomic charges:   -0.0000000

LOEWDIN ATOMIC CHARGES
----------------------
   0 C :   -0.113026
   1 C :   -0.123597
   2 C :   -0.121229
   3 H :    0.065460
   4 H :    0.064136
   5 C :   -0.020171
   6 H :    0.070580
   7 H :    0.070180
   8 C :   -0.039439
   9 C :   -0.014617
  10 H :    0.063451
  11 H :    0.063003
  12 C :   -0.190251
  13 H :    0.067875
  14 H :    0.064776
  15 H :    0.067978
  16 C :   -0.190767
  17 H :    0.066921
  18 H :    0.063691
  19 H :    0.069871
  20 C :   -0.199053
  21 H :    0.070551
  22 H :    0.073739
  23 H :    0.078697
  24 C :   -0.080237
  25 C :   -0.073430
  26 C :   -0.016711
  27 C :   -0.080280
  28 C :   -0.086410
  29 C :   -0.066654
  30 C :   -0.020180
  31 C :   -0.080881
  32 C :    0.000115
  33 O :   -0.270606
  34 H :    0.056729
  35 H :    0.053457
  36 C :   -0.198011
  37 H :    0.079268
  38 H :    0.080326
  39 H :    0.073616
  40 C :   -0.198489
  41 H :    0.079989
  42 H :    0.079477
  43 H :    0.072229
  44 H :    0.068847
  45 H :    0.071248
  46 H :    0.069645
  47 H :    0.068763
  48 H :    0.070365
  49 H :    0.075823
  50 H :    0.163235

  Mayer bond orders larger than 0.1
B(  0-C ,  1-C ) :   1.0033 B(  0-C ,  9-C ) :   0.9831 B(  0-C , 10-H ) :   0.9471
B(  0-C , 11-H ) :   0.9484 B(  1-C ,  2-C ) :   1.0036 B(  1-C ,  3-H ) :   0.9501
B(  1-C ,  4-H ) :   0.9514 B(  2-C ,  5-C ) :   0.9894 B(  2-C ,  6-H ) :   0.9361
B(  2-C ,  7-H ) :   0.9439 B(  5-C ,  8-C ) :   1.8203 B(  5-C , 20-C ) :   1.0017
B(  8-C ,  9-C ) :   0.9629 B(  8-C , 24-C ) :   1.0330 B(  9-C , 12-C ) :   0.9861
B(  9-C , 16-C ) :   0.9896 B( 12-C , 13-H ) :   0.9594 B( 12-C , 14-H ) :   0.9534
B( 12-C , 15-H ) :   0.9571 B( 16-C , 17-H ) :   0.9581 B( 16-C , 18-H ) :   0.9575
B( 16-C , 19-H ) :   0.9542 B( 20-C , 21-H ) :   0.9544 B( 20-C , 22-H ) :   0.9480
B( 20-C , 23-H ) :   0.9498 B( 24-C , 25-C ) :   1.7106 B( 24-C , 44-H ) :   0.9233
B( 25-C , 26-C ) :   1.1331 B( 25-C , 45-H ) :   0.9381 B( 26-C , 27-C ) :   1.6268
B( 26-C , 36-C ) :   1.0239 B( 27-C , 28-C ) :   1.1559 B( 27-C , 46-H ) :   0.9381
B( 28-C , 29-C ) :   1.6682 B( 28-C , 47-H ) :   0.9302 B( 29-C , 30-C ) :   1.1259
B( 29-C , 48-H ) :   0.9397 B( 30-C , 31-C ) :   1.7412 B( 30-C , 40-C ) :   1.0171
B( 31-C , 32-C ) :   1.0079 B( 31-C , 49-H ) :   0.9360 B( 32-C , 33-O ) :   0.9427
B( 32-C , 34-H ) :   0.9299 B( 32-C , 35-H ) :   0.9351 B( 33-O , 50-H ) :   0.8822
B( 36-C , 37-H ) :   0.9454 B( 36-C , 38-H ) :   0.9448 B( 36-C , 39-H ) :   0.9531
B( 40-C , 41-H ) :   0.9468 B( 40-C , 42-H ) :   0.9472 B( 40-C , 43-H ) :   0.9523

FINAL SINGLE POINT ENERGY      -854.805006234363

DIPOLE MOMENT
-------------
                                X             Y             Z
Electronic contribution:     15.02021      -4.75456       0.57465
Nuclear contribution   :    -14.67227       5.32066      -0.45210
                        -----------------------------------------
Total Dipole Moment    :      0.34794       0.56610       0.12255
                        -----------------------------------------
Magnitude (a.u.)       :      0.67569
Magnitude (Debye)      :      1.71746

                             ****ORCA TERMINATED NORMALLY****
TOTAL RUN TIME: 0 days 4 hours 6 minutes 5 seconds 684 msec
